# LAMMPS data file written by OVITO Basic 3.2.1
640 atoms
2 atom types
0.0 25.0011014914 xlo xhi
0.0 12.4098025076 ylo yhi
0.0 23.0055441372 zlo zhi
-1.4428843e-09 -5.6207085272 -1.6927552e-09 xy xz yz

Atoms  # atomic

1 1 1.5454351005007498 1.54923471778523 1.82225433003879
2 1 14.04598584618774 1.54923471779098 1.82225433002731
3 1 -1.26491916309925 1.5492347169852299 13.325026398638789
4 1 11.23563158258774 1.54923471699098 13.32502639862731
5 1 1.54013377831608 4.65168531298547 1.81406788754874
6 1 14.04068452402751 4.6516853129932505 1.81406788755068
7 1 -1.27022048528392 4.65168531218547 13.31683995614873
8 1 11.23033026042751 4.65168531219325 13.31683995615068
9 1 1.54013373579949 7.75811716261614 1.81406782236972
10 1 14.04068448151091 7.75811716260836 1.81406782237167
11 1 -1.27022052780051 7.7581171618161395 13.31683989096972
12 1 11.23033021791091 7.75811716180836 13.31683989097167
13 1 1.54543505718416 10.86056782121317 1.82225426485977
14 1 14.04598580287115 10.86056782120742 1.82225426484829
15 1 -1.26491920641584 10.86056782041317 13.32502633345977
16 1 11.23563153927115 10.86056782040742 13.325026333448289
17 1 0.13495660469925 1.55321590841477 7.56545385666121
18 1 12.63550735041226 1.55321590840902 7.56545385667269
19 1 -2.67539765890075 1.55321590751477 19.06822592526121
20 1 9.82515308681226 1.55321590750902 19.06822592527269
21 1 0.14025792608392 4.6556665670145305 7.57364029915127
22 1 12.6408086717725 4.65566656700675 7.573640299149321
23 1 -2.67009633751608 4.6556665661145304 19.07641236775127
24 1 9.830454408172491 4.65566656610675 19.07641236774932
25 1 0.14025796800051 7.75413597118386 7.57364036433028
26 1 12.64080871368909 7.75413597119164 7.57364036432833
27 1 -2.6700962955994902 7.75413597028386 19.07641243293028
28 1 9.830454450089091 7.75413597029164 19.07641243292833
29 1 0.13495664581584 10.85658656638683 7.565453921840231
30 1 12.635507391528849 10.856586566392581 7.56545392185171
31 1 -2.67539761778416 10.85658656548683 19.06822599044023
32 1 9.82515312792885 10.85658656549258 19.068225990451708
33 1 3.30606242349417 -2.258376847167e-08 3.93901364420942
34 1 15.806613169184411 -2.258376847167e-08 3.93901364419265
35 1 0.49570815989417 -2.34301460717e-08 15.44178571280942
36 1 12.99625890558441 -2.34301460717e-08 15.441785712792651
37 1 3.30231385232209 3.10526577628742 3.93322500129039
38 1 15.8028645980493 3.10526577628876 3.93322500130818
39 1 0.49195958872209 3.1052657754874198 15.43599706989039
40 1 12.9925103344493 3.10526577548876 15.435997069908181
41 1 3.2985652216413 6.20490127600777 3.92743626621655
42 1 15.799115967300411 6.20490127600777 3.92743626619378
43 1 0.48821095804131004 6.20490127520777 15.43020833481655
44 1 12.98876170370041 6.20490127520777 15.43020833479378
45 1 3.30231379193802 9.30453673091258 3.93322490909221
46 1 15.80286453766522 9.304536730911241 3.93322490911001
47 1 0.49195952833802 9.30453673011258 15.435996977692211
48 1 12.99251027406522 9.304536730111241 15.43599697771001
49 1 1.89338809050583 2.180858272833e-08 9.67882230049058
50 1 14.39393883621559 2.180858272833e-08 9.678822300507349
51 1 -0.9169661730941701 2.09622051283e-08 21.18159436909058
52 1 11.583584572615589 2.09622051283e-08 21.18159436910735
53 1 1.89713666087791 3.09963547671258 9.68461094340961
54 1 14.3976874065507 3.09963547671124 9.684610943391819
55 1 -0.9132176027220901 3.09963547591258 21.18738301200961
56 1 11.5873331429507 3.09963547591124 21.18738301199182
57 1 1.9008852909587 6.20490123079223 9.69039967848345
58 1 14.40143603669959 6.20490123079223 9.69039967850622
59 1 -0.90946897264131 6.20490122999223 21.19317174708345
60 1 11.591081773099589 6.20490122999223 21.19317174710622
61 1 1.89713671986198 9.31016702968742 9.684611035607789
62 1 14.39768746553478 9.31016702968876 9.68461103558999
63 1 -0.91321754373802 9.31016702888742 21.18738310420779
64 1 11.58733320193478 9.31016702888876 21.18738310418999
65 1 0.01685260729611 3.124425692916 4.5779801883039895
66 1 12.51740335300088 3.12442569285183 4.577980188295849
67 1 -2.7935016563038904 3.12442569211601 16.08075225690399
68 1 9.707049089400881 3.12442569205183 16.08075225689585
69 1 0.009406670976140001 6.20490142829782 4.558852940047079
70 1 12.509957416691009 6.20490142829781 4.558852940082829
71 1 -2.80094759262386 6.20490142749782 16.061625008647077
72 1 9.699603153091001 6.20490142749781 16.061625008682828
73 1 0.01685248800301 9.285376813684001 4.5779798837128
74 1 12.51740323370777 9.28537681374817 4.57797988370466
75 1 -2.79350177559699 9.285376812884001 16.0807519523128
76 1 9.70704897010777 9.28537681294817 16.08075195230466
77 1 0.02429842350531 12.40980233210219 4.5971071319364
78 1 12.52484916921128 12.40980233210219 4.597107131923449
79 1 -2.78605584009469 12.40980233130219 16.0998792005364
80 1 9.71449490561128 12.40980233130219 16.09987920052345
81 1 -1.38832464309611 3.08047555948399 10.329365917996011
82 1 11.11222610259912 3.08047555954817 10.32936591800415
83 1 -4.19867890669611 3.08047555858399 21.83213798659601
84 1 8.30187183899912 3.08047555864817 21.83213798660415
85 1 -1.38087870757614 6.20490107790218 10.34849316625292
86 1 11.119672038108991 6.20490107790219 10.348493166217171
87 1 -4.19123297117614 6.20490107700218 21.85126523485292
88 1 8.309317774509 6.20490107700219 21.85126523481717
89 1 -1.38832452520301 9.329326946316 10.3293662225872
90 1 11.11222622049223 9.32932694625183 10.329366222595342
91 1 -4.19867878880301 9.329326945416 21.8321382911872
92 1 8.30187195689223 9.32932694535183 21.83213829119534
93 1 -1.3957704615053101 12.40980268169781 10.310238974363601
94 1 11.10478028418872 12.40980268169781 10.310238974376551
95 1 -4.20612472510531 12.4098026807978 21.8130110429636
96 1 8.29442602058872 12.40980268079781 21.813011042976548
97 1 4.833510766467399 1.53568671882167 1.18693100283559
98 1 17.334061512153312 1.53568671874078 1.18693100282594
99 1 2.0231565028674 1.53568671802167 12.68970307143559
100 1 14.523707248553311 1.53568671794078 12.68970307142594
101 1 4.822980706374509 4.63813709818684 1.1598812043428701
102 1 17.323531452080772 4.638137098262471 1.15988120435001
103 1 2.0126264427745104 4.63813709738684 12.66265327294287
104 1 14.513177188480771 4.6381370974624705 12.66265327295001
105 1 4.822980622235639 7.77166516222371 1.1598809889666502
106 1 17.3235313679419 7.77166516214808 1.15988098897378
107 1 2.0126263586356403 7.7716651614237096 12.66265305756665
108 1 14.513177104341901 7.77166516134808 12.662653057573781
109 1 4.83351068152853 10.874116036567761 1.18693078745937
110 1 17.33406142721444 10.87411603664866 1.1869307874497101
111 1 2.02315641792853 10.874116035767761 12.68970285605937
112 1 14.523707163614441 10.87411603584866 12.68970285604971
113 1 3.4178034911326 1.56676390797833 6.91126702326441
114 1 15.918354236846689 1.56676390805922 6.91126702327406
115 1 0.6074492275326 1.56676390707833 18.41403909186441
116 1 13.10799997324669 1.5667639071592199 18.414039091874063
117 1 3.42833355042549 4.66921478241316 6.93831682175713
118 1 15.928884296119229 4.66921478233752 6.93831682174999
119 1 0.61797928682549 4.66921478151316 18.441088890357133
120 1 13.11853003251923 4.66921478143753 18.44108889034999
121 1 3.42833363396436 7.74058797217629 6.93831703713335
122 1 15.928884379658099 7.7405879722519195 6.93831703712622
123 1 0.61797937036436 7.74058797127629 18.44108910573335
124 1 13.1185301160581 7.7405879713519194 18.44108910572622
125 1 3.41780357387147 10.84303835163224 6.9112672386406295
126 1 15.918354319585559 10.84303835155134 6.91126723865029
127 1 0.60744931027147 10.84303835073224 18.414039307240632
128 1 13.10800005598556 10.84303835065134 18.41403930725029
129 1 7.79680839258441 2.248289768116e-08 1.8239497697926499
130 1 20.297359138294173 2.248289768116e-08 1.82394976980942
131 1 4.98645412898441 2.163652008116e-08 13.32672183839265
132 1 17.487004874694172 2.163652008116e-08 13.32672183840942
133 1 7.7930598214621805 3.09963547741124 1.81816112689563
134 1 20.29361056713497 3.0996354774125803 1.81816112687784
135 1 4.982705557862181 3.09963547651124 13.32093319549563
136 1 17.48325630353497 3.09963547651258 13.32093319547784
137 1 7.78931119070041 6.20490123147614 1.81237239179378
138 1 20.289861936441298 6.20490123147614 1.81237239181655
139 1 4.97895692710041 6.20490123057614 13.31514446039378
140 1 17.479507672841297 6.20490123057614 13.31514446041655
141 1 7.79305976105234 9.31016703038876 1.8181610347225599
142 1 20.293610506725138 9.31016703038742 1.8181610347047599
143 1 4.982705497452351 9.31016702948876 13.32093310332256
144 1 17.483256243125137 9.31016702948742 13.32093310330476
145 1 6.38413405961559 -2.2788011118840002e-08 7.563758426107349
146 1 18.884684805305827 -2.2788011118840002e-08 7.56375842609058
147 1 3.57377979601559 -2.36343887188e-08 19.06653049470735
148 1 16.074330541705827 -2.36343887188e-08 19.06653049469058
149 1 6.3878826299378195 3.10526577608876 7.569547069004369
150 1 18.88843337566503 3.10526577608742 7.56954706902216
151 1 3.57752836633782 3.10526577528876 19.07231913760437
152 1 16.078079112065033 3.1052657752874198 19.07231913762216
153 1 6.39163126009959 6.20490127582386 7.57533580410622
154 1 18.892182005758702 6.20490127582386 7.5753358040834495
155 1 3.58127699649959 6.20490127502386 19.07810787270622
156 1 16.0818277421587 6.20490127502386 19.07810787268345
157 1 6.387882688947649 9.304536730711241 7.569547161177439
158 1 18.888433434674862 9.30453673071258 7.569547161195239
159 1 3.57752842534765 9.304536729911241 19.072319229777438
160 1 16.07807917107486 9.30453672991258 19.07231922979524
161 1 9.55523987608327 1.55321590840667 3.9373182103333804
162 1 22.05579062179628 1.55321590841242 3.93731821034486
163 1 6.7448856124832695 1.5532159076066698 15.440090278933381
164 1 19.24543635819628 1.55321590761242 15.440090278944862
165 1 9.54993855392303 4.6556665670091 3.92913176785675
166 1 22.050489299611613 4.655666567016881 3.9291317678548
167 1 6.73958429032303 4.6556665662091 15.431903836456751
168 1 19.240135036011612 4.655666566216881 15.4319038364548
169 1 9.549938511415379 7.75413597119399 3.9291317026656003
170 1 22.05048925710396 7.7541359711862095 3.9291317026636503
171 1 6.73958424781539 7.75413597039399 15.4319037712656
172 1 19.240134993503958 7.754135970386209 15.43190377126365
173 1 9.55523983277562 10.85658656639023 3.93731814514223
174 1 22.05579057848863 10.85658656638448 3.9373181451537103
175 1 6.74488556917562 10.85658656559023 15.44009021374223
176 1 19.24543631488863 10.85658656558448 15.440090213753711
177 1 8.14476138031673 1.54923471699333 9.68051773696662
178 1 20.64531212600372 1.54923471698758 9.680517736955139
179 1 5.33440711671673 1.5492347160933302 21.18328980556662
180 1 17.83495786240372 1.5492347160875801 21.183289805555138
181 1 8.150062701676971 4.6516853121909 9.68870417944325
182 1 20.650613447388388 4.65168531218312 9.6887041794452
183 1 5.33970843807697 4.6516853112909 21.191476248043248
184 1 17.840259183788387 4.65168531128312 21.1914762480452
185 1 8.150062743584622 7.75811716180601 9.6887042446344
186 1 20.650613489296042 7.75811716181379 9.68870424463635
187 1 5.33970847998462 7.75811716090601 21.1914763132344
188 1 17.84025922569604 7.75811716091379 21.191476313236347
189 1 8.14476142142438 10.86056782040977 9.68051780215777
190 1 20.64531216711137 10.86056782041552 9.680517802146289
191 1 5.33440715782438 10.86056781950977 21.18328987075777
192 1 17.83495790351137 10.86056781951552 21.18328987074629
193 1 6.2723929932607305 1.56676390819254 4.5915050476355
194 1 18.772943738974817 1.56676390811165 4.59150504764515
195 1 3.46203872966073 1.56676390739254 16.0942771162355
196 1 15.96258947537482 1.56676390731165 16.094277116245152
197 1 6.2618629331881905 4.6692147824042 4.56445524915957
198 1 18.76241367888192 4.6692147824798305 4.56445524915243
199 1 3.45150866958819 4.6692147816042 16.06722731775957
200 1 15.95205941528192 4.66921478167983 16.06722731775243
201 1 6.2618628490344905 7.7405879723185995 4.56445503376422
202 1 18.76241359472822 7.74058797224297 4.56445503375709
203 1 3.45150858543449 7.7405879715185995 16.06722710236422
204 1 15.95205933112822 7.74058797144297 16.06722710235709
205 1 6.2723929083070304 10.84303835168467 4.59150483224015
206 1 18.77294365402112 10.84303835176556 4.59150483224981
207 1 3.4620386447070297 10.84303835088467 16.09427690084015
208 1 15.962589390421119 10.84303835096556 16.09427690084981
209 1 4.8566857179392695 1.53568671800746 10.315841068064499
210 1 17.35723646362518 1.53568671808835 10.31584106805485
211 1 2.04633145433927 1.53568671710746 21.818613136664503
212 1 14.546882200025179 1.53568671718835 21.81861313665485
213 1 4.867215777211809 4.6381370975958 10.34289086654043
214 1 17.367766522918078 4.63813709752017 10.342890866547569
215 1 2.05686151361181 4.6381370966958 21.84566293514043
216 1 14.557412259318081 4.63813709662017 21.845662935147573
217 1 4.867215860765509 7.7716651614814 10.342891081935779
218 1 17.367766606471783 7.77166516155703 10.34289108194291
219 1 2.05686159716551 7.7716651605814 21.84566315053578
220 1 14.55741234287178 7.7716651606570295 21.84566315054291
221 1 4.856685800692969 10.87411603591533 10.31584128345985
222 1 17.357236546378882 10.87411603583444 10.31584128345019
223 1 2.04633153709297 10.87411603501533 21.818613352059852
224 1 14.546882282778881 10.87411603493444 21.818613352050193
225 1 11.07852112158433 3.08047556004817 1.17340614830616
226 1 23.57907186727956 3.08047555998399 1.1734061483143001
227 1 8.26816685798433 3.08047555924817 12.67617821690616
228 1 20.768717603679562 3.08047555918399 12.6761782169143
229 1 11.071075185291 6.20490107844201 1.15427890008283
230 1 23.57162593097614 6.20490107844201 1.1542789000470801
231 1 8.260720921691 6.20490107764201 12.65705096868283
232 1 20.761271667376143 6.20490107764201 12.65705096864708
233 1 11.07852100232432 9.32932694675183 1.17340584369435
234 1 23.57907174801956 9.329326946816 1.1734058437024901
235 1 8.26816673872432 9.32932694595183 12.67617791229435
236 1 20.76871748441956 9.329326946016 12.67617791230249
237 1 11.08596693781128 12.40980268215799 1.19253309192345
238 1 23.58651768350531 12.40980268215799 1.1925330919364001
239 1 8.27561267421129 12.40980268135799 12.69530516052345
240 1 20.77616341990531 12.40980268135799 12.6953051605364
241 1 9.67334387121567 3.12442569255183 6.92479187799384
242 1 22.17389461692044 3.12442569261601 6.9247918779857
243 1 6.86298960761567 3.12442569165183 18.42756394659384
244 1 19.363540353320438 3.12442569171601 18.4275639465857
245 1 9.680789806708999 6.20490142795799 6.94391912621717
246 1 22.18134055242386 6.20490142795799 6.94391912625292
247 1 6.870435543109 6.20490142705799 18.44669119481717
248 1 19.370986288823858 6.20490142705799 18.44669119485292
249 1 9.67334398907568 9.28537681344817 6.92479218260565
250 1 22.17389473478044 9.285376813384001 6.92479218259751
251 1 6.86298972547568 9.28537681254817 18.42756425120565
252 1 19.36354047118044 9.285376812484001 18.42756425119751
253 1 9.665898052788709 12.40980233184201 6.90566493437655
254 1 22.16644879849469 12.40980233184201 6.9056649343636
255 1 6.85554378918872 12.40980233094201 18.408437002976548
256 1 19.35609453489469 12.40980233094201 18.4084370029636
257 2 5.7528248642235 -1.6774074299053998e-07 1.45607698888293
258 2 18.253375609702992 -1.6774075299054e-07 1.45607698882655
259 2 2.9424706006235 -1.6858713059054e-07 12.95884905748293
260 2 15.44302134610299 -1.6858713059054e-07 12.95884905742655
261 2 5.84610890815479 3.12354114271926 1.47450476712359
262 2 18.34665965413363 3.1235411427451103 1.47450476719702
263 2 3.0357546445547903 3.12354114191926 12.97727683572359
264 2 15.53630539053363 3.1235411419451102 12.977276835797019
265 2 5.9393944382330695 6.2049014219727505 1.49293283896035
266 2 18.43994518363688 6.20490142197274 1.49293283888484
267 2 3.12904017463307 6.2049014211727505 12.995704907560349
268 2 15.62959092003688 6.2049014211727505 12.99570490748484
269 2 5.84611039316893 9.28626136528076 1.47450506062356
270 2 18.34666113914776 9.286261365254902 1.4745050606969898
271 2 3.03575612956892 9.28626136448076 12.977277129223559
272 2 15.53630687554776 9.286261364454901 12.97727712929699
273 2 4.534217306976499 1.6778152820946e-07 7.24431887321707
274 2 17.034768052897007 1.6778153820946e-07 7.24431887327345
275 2 1.7238630433764999 1.669351606095e-07 18.747090941817067
276 2 14.22441378929701 1.669351606095e-07 18.74709094187345
277 2 4.440933262245211 3.0813601110807403 7.22589109497641
278 2 16.941484007666368 3.08136011105489 7.22589109490298
279 2 1.63057899864521 3.08136011028074 18.72866316357641
280 2 14.131129744066369 3.0813601102548898 18.72866316350298
281 2 4.34764773156693 6.20490108562725 7.20746302313965
282 2 16.84819847756312 6.20490108562726 7.20746302321516
283 2 1.53729346796693 6.20490108482725 18.710235091739648
284 2 14.037844213963119 6.20490108482725 18.710235091815157
285 2 4.44093177583108 9.328442396119241 7.22589080147644
286 2 16.94148252125224 9.3284423961451 7.22589080140301
287 2 1.6305775122310802 9.328442395319241 18.728662870076437
288 2 14.13112825765224 9.3284423953451 18.72866287000301
289 2 -1.06697423925384 1.53631218502644 4.2638505036780705
290 2 11.4335765065645 1.53631218511621 4.2638505037011
291 2 -3.87732850285384 1.53631218422643 15.766622572278068
292 2 8.623222242964498 1.53631218431621 15.766622572301099
293 2 -0.9350496282038099 4.63876257443058 4.28991152519481
294 2 11.56550111736218 4.63876257448021 4.28991152517262
295 2 -3.74540389180381 4.63876257363058 15.79268359379482
296 2 8.75514685376219 4.63876257368021 15.792683593772619
297 2 -0.9350485780406299 7.77103969451992 4.289911732719831
298 2 11.56550216752535 7.7710396944703 4.289911732697631
299 2 -3.74540284164063 7.77103969371992 15.792683801319829
300 2 8.755147903925351 7.7710396936703 15.79268380129763
301 2 -1.0669731898907 10.87349055902304 4.26385071120307
302 2 11.43357755592767 10.87349055893328 4.263850711226111
303 2 -3.8773274534907003 10.87349055822304 15.76662277980307
304 2 8.62322329232767 10.87349055813328 15.76662277982611
305 2 -2.3402257091461602 1.5661384403735599 10.04129776702193
306 2 10.1603250364355 1.56613844028379 10.0412977669989
307 2 -5.1505799727461605 1.56613843947357 21.54406983562193
308 2 7.3499707728354995 1.56613843938379 21.544069835598897
309 2 -2.47215032099619 4.66858930476942 10.01523674550518
310 2 10.02840042483782 4.668589304719791 10.01523674552738
311 2 -5.28250458459619 4.66858930386942 21.51800881410518
312 2 7.21804616123781 4.6685893038197905 21.518008814127377
313 2 -2.47215137175937 7.74121343848008 10.01523653798017
314 2 10.028399374074649 7.74121343852969 10.01523653800237
315 2 -5.28250563535937 7.74121343758008 21.518008606580167
316 2 7.21804511047465 7.7412134376297 21.51800860660237
317 2 -2.3402267607093004 10.843663827776961 10.041297559496929
318 2 10.16032398487233 10.84366382786671 10.04129755947389
319 2 -5.1505810243093 10.843663826876961 21.544069628096928
320 2 7.34996972127233 10.84366382696672 21.54406962807389
321 2 1.38147023335768 3.12783824863792 3.23143862091548
322 2 13.88202097904942 3.12783824861044 3.2314386209663
323 2 -1.42888403024232 3.12783824783792 14.734210689515479
324 2 11.071666715449421 3.12783824781044 14.7342106895663
325 2 1.33446197839612 6.20490145554436 3.27195236415987
326 2 13.835012724196579 6.20490145554436 3.2719523640741
327 2 -1.47589228520388 6.20490145474436 14.77472443275987
328 2 11.02465846059658 6.20490145474436 14.7747244326741
329 2 1.38146948416401 9.28196425816208 3.23143926600773
330 2 13.882020229855739 9.281964258189571 3.2314392660585503
331 2 -1.42888477943599 9.28196425736208 14.73421133460773
332 2 11.07166596625574 9.28196425738956 14.73421133465855
333 2 1.42847773830841 12.40980230505564 3.19092552287097
334 2 13.929028483903089 12.40980230505564 3.19092552290583
335 2 -1.38187652529159 12.40980230425564 14.69369759147097
336 2 11.11867422030309 12.40980230425564 14.69369759150583
337 2 -0.02370764695768 3.07706300396208 8.98282530038452
338 2 12.47684309875058 3.07706300398956 8.9828253003337
339 2 -2.83406191055768 3.07706300306208 20.485597368984518
340 2 9.666488835150579 3.07706300308956 20.4855973689337
341 2 0.02330060720388 6.20490105085564 8.94231155714013
342 2 12.52385135280342 6.20490105085564 8.9423115572259
343 2 -2.7870536563961203 6.20490104995564 20.44508362574013
344 2 9.71349708920342 6.20490104995564 20.445083625825898
345 2 -0.02370689916401 9.33273950203792 8.98282465529227
346 2 12.476843846544261 9.33273950201044 8.98282465524145
347 2 -2.83406116276401 9.33273950113792 20.485596723892268
348 2 9.66648958294426 9.33273950111043 20.48559672384145
349 2 -0.07071515410841 12.40980270894436 9.02333839842903
350 2 12.42983559169691 12.40980270894436 9.02333839839417
351 2 -2.88106941770841 12.40980270804436 20.526110467029028
352 2 9.61948132809691 12.40980270804436 20.52611046699417
353 2 3.4968682387147503 1.5332736966571001 2.49129954510245
354 2 15.997418984441909 1.53327369667724 2.49129954510853
355 2 0.68651397511475 1.5332736958571 13.99407161370245
356 2 13.18706472084191 1.53327369587724 13.994071613708531
357 2 3.43038905646871 4.63572403770667 2.54859417403177
358 2 15.93093980216217 4.63572403770568 2.54859417402469
359 2 0.62003479286871 4.63572403690667 14.05136624263177
360 2 13.120585538562171 4.63572403690568 14.051366242624692
361 2 3.43038852678055 7.77407818410962 2.5485946302913898
362 2 15.93093927247401 7.77407818411061 2.5485946302843097
363 2 0.62003426318055 7.77407818330962 14.05136669889139
364 2 13.120585008874011 7.77407818331061 14.05136669888431
365 2 3.49686770822658 10.87652909692661 2.49130000136207
366 2 15.997418453953749 10.87652909690647 2.49130000136815
367 2 0.68651344462658 10.87652909612661 13.99407206996207
368 2 13.18706419035375 10.87652909610647 13.994072069968151
369 2 2.02521139568525 1.5691769299429 8.29998066459755
370 2 14.52576214135809 1.56917692992276 8.29998066459147
371 2 -0.78514286791475 1.5691769290428998 19.80275273319755
372 2 11.715407877758091 1.56917692902276 19.802752733191472
373 2 2.09169057713129 4.67162784269333 8.24268603566823
374 2 14.592241322837829 4.6716278426943205 8.242686035675309
375 2 -0.71866368646871 4.67162784179333 19.74545810426823
376 2 11.78188705923783 4.6716278417943204 19.74545810427531
377 2 2.09169110621945 7.73817495009038 8.24268557940861
378 2 14.592241851925989 7.73817495008939 8.24268557941569
379 2 -0.71866315738055 7.7381749491903795 19.74545764800861
380 2 11.78188758832599 7.73817494918939 19.74545764801569
381 2 2.02521192397342 10.84062529107339 8.29998020833793
382 2 14.52576266964625 10.84062529109353 8.29998020833185
383 2 -0.78514233962658 10.84062529017339 19.80275227693793
384 2 11.715408406046251 10.84062529019353 19.80275227693185
385 2 2.94165633709737 1.5524290406529 5.12608032644517
386 2 15.44220708279285 1.55242904079233 5.12608032642417
387 2 0.13130207349737 1.5524290398529 16.62885239504517
388 2 12.631852819192849 1.55242903999233 16.62885239502417
389 2 2.91959153857427 4.654879686904151 5.09651890805235
390 2 15.42014228427746 4.65487968675035 5.096518908070751
391 2 0.10923727497427 4.654879686104151 16.599290976652348
392 2 12.60978802067746 4.65487968595035 16.59929097667075
393 2 2.91959136260347 7.7549228393845 5.09651867275046
394 2 15.42014210830666 7.75492283953829 5.09651867276885
395 2 0.10923709900347 7.7549228385845 16.59929074135046
396 2 12.60978784470666 7.75492283873829 16.59929074136885
397 2 2.94165616032657 10.85737344725846 5.126080091143271
398 2 15.442206906022049 10.85737344711903 5.126080091122271
399 2 0.13130189672657 10.85737344645846 16.62885215974327
400 2 12.631852642422048 10.85737344631903 16.62885215972227
401 2 1.51441423150263 1.5500215853471 10.84790470705483
402 2 14.01496497720715 1.55002158520767 10.84790470707583
403 2 -1.29594003209737 1.5500215844471 22.350676775654833
404 2 11.20461071360715 1.55002158430767 22.350676775675833
405 2 1.53647902922573 4.65247219289585 10.87746612544765
406 2 14.037029774922539 4.65247219304965 10.877466125429251
407 2 -1.27387523437427 4.65247219199585 22.380238194047653
408 2 11.22667551132254 4.65247219214965 22.38023819402925
409 2 1.5364792045965299 7.7573302942155 10.87746636074954
410 2 14.03702995029334 7.75733029406171 10.87746636073115
411 2 -1.27387505900347 7.7573302933154995 22.380238429349543
412 2 11.22667568669334 7.75733029316171 22.38023842933115
413 2 1.51441440607343 10.85978094014154 10.847904942356731
414 2 14.01496515177795 10.85978094028097 10.847904942377731
415 2 -1.29593985752657 10.85978093924154 22.35067701095673
416 2 11.204610888177951 10.85978093938097 22.35067701097773
417 2 1.91447451543401 3.10074828543013 0.64008669894928
418 2 14.41502526113199 3.10074828542603 0.6400866989546801
419 2 -0.89587974816599 3.10074828463013 12.14285876754928
420 2 11.60467099753199 3.10074828462603 12.14285876755468
421 2 1.89887222241543 6.20490124014174 0.61918345307599
422 2 14.39942296815261 6.20490124014174 0.61918345312509
423 2 -0.91148204118457 6.20490123934174 12.121955521675991
424 2 11.58906870455261 6.20490123934174 12.12195552172509
425 2 1.91447426626482 9.30905422196987 0.64008636604468
426 2 14.4150250119628 9.309054221973971 0.6400863660500701
427 2 -0.89587999733518 9.30905422116987 12.14285843464468
428 2 11.6046707483628 9.309054221173971 12.142858434650071
429 2 1.9300765584781001 12.40980252105825 0.66098961188919
430 2 14.43062730415918 12.40980252105826 0.6609896118895501
431 2 -0.8802777051219 12.40980252025825 12.16376168048919
432 2 11.62027304055918 12.40980252025826 12.16376168048955
433 2 0.5092971351659901 3.10415296776987 6.39147240035072
434 2 13.00984788086801 3.10415296777397 6.39147240034532
435 2 -2.3010571284340102 3.10415296686987 17.89424446895072
436 2 10.19949361726801 3.10415296687397 17.89424446894532
437 2 0.52489942738457 6.20490126685826 6.41237564622401
438 2 13.02545017304739 6.20490126685826 6.41237564617491
439 2 -2.28545483621543 6.20490126595826 17.91514771482401
440 2 10.21509590944739 6.20490126595826 17.91514771477491
441 2 0.50929738293518 9.30564953883012 6.39147273325532
442 2 13.0098481286372 9.30564953882603 6.39147273324993
443 2 -2.30105688066482 9.305649537930131 17.89424480185532
444 2 10.1994938650372 9.30564953792603 17.89424480184993
445 2 0.49369508992190003 12.40980249354175 6.37056948741081
446 2 12.99424583564082 12.40980249354174 6.37056948741044
447 2 -2.3166591736781 12.40980249264175 17.87334155601081
448 2 10.18389157204082 12.40980249264174 17.87334155601045
449 2 12.03042219546935 1.56613844103788 1.46147430081352
450 2 24.53097294105098 1.56613844112765 1.46147430079049
451 2 9.22006793186935 1.56613844023789 12.96424636941352
452 2 21.720618677450982 1.56613844032766 12.964246369390489
453 2 12.16234680626703 4.668589305365701 1.48753532228504
454 2 24.662897552101047 4.66858930541533 1.48753532230724
455 2 9.351992542667029 4.6685893045657005 12.99030739088504
456 2 21.85254328850105 4.66858930461534 12.990307390907239
457 2 12.16234785642051 7.7412134391756 1.4875355297852
458 2 24.66289860225451 7.74121343912599 1.4875355298074
459 2 9.35199359282051 7.74121343837561 12.990307598385199
460 2 21.85254433865451 7.74121343832599 12.9903075984074
461 2 12.03042324482283 10.8436638286208 1.46147450831368
462 2 24.53097399040448 10.843663828531051 1.46147450829065
463 2 9.220068981222829 10.84366382782081 12.964246576913679
464 2 21.72061972680448 10.84366382773106 12.96424657689065
465 2 10.75717072533065 1.53631218496212 7.23892156408648
466 2 23.25772147114902 1.53631218487234 7.23892156410951
467 2 7.94681646173065 1.53631218406212 18.741693632686477
468 2 20.447367207549018 1.53631218397234 18.74169363270951
469 2 10.62524611373297 4.6387625744343 7.21286054261496
470 2 23.12579685929895 4.6387625743846606 7.21286054259276
471 2 7.81489185013297 4.6387625735343 18.715632611214957
472 2 20.31544259569895 4.6387625734846605 18.71563261119276
473 2 10.62524506297949 7.7710396944244 7.2128603351148
474 2 23.12579580854549 7.77103969447401 7.2128603350926
475 2 7.81489079937949 7.7710396935244 18.7156324037148
476 2 20.31544154494549 7.77103969357401 18.7156324036926
477 2 10.75716967377717 10.873490558779201 7.23892135658632
478 2 23.257720419595522 10.87349055886894 7.23892135660935
479 2 7.9468154101771695 10.87349055787919 18.74169342518632
480 2 20.44736615599552 10.87349055796894 18.74169342520935
481 2 5.15597917080299 1.6765422160993e-07 4.25845319572655
482 2 17.6565299167235 1.6765422160993e-07 4.25845319578293
483 2 2.34562490720299 1.668078440099e-07 15.76122526432655
484 2 14.84617565312349 1.668078440099e-07 15.76122526438293
485 2 5.24926321537537 3.08136011105489 4.27688097412988
486 2 17.74981396079653 3.08136011108075 4.27688097405645
487 2 2.43890895177537 3.0813601101548898 15.77965304272988
488 2 14.93945969719653 3.08136011018074 15.77965304265646
489 2 5.34254874473687 6.20490108570353 4.2953090457848395
490 2 17.84309949073306 6.20490108570353 4.29530904586035
491 2 2.53219448113687 6.20490108480353 15.79808111438484
492 2 15.03274522713307 6.20490108480353 15.798081114460349
493 2 5.24926470010604 9.3284423961451 4.2768812675641295
494 2 17.7498154455272 9.328442396119241 4.276881267490699
495 2 2.4389104365060397 9.3284423952451 15.77965333616413
496 2 14.9394611819272 9.328442395219241 15.7796533360907
497 2 3.93737161399701 -1.6856188719007002e-07 10.04669508017345
498 2 16.4379223594765 -1.6856188719007002e-07 10.04669508011707
499 2 1.12701735039701 -1.694082647901e-07 21.54946714877345
500 2 13.6275680958765 -1.694082647901e-07 21.549467148717067
501 2 3.8440875686246296 3.1235411418451102 10.02826730177012
502 2 16.34463831460347 3.12354114181925 10.02826730184354
503 2 1.03373330502463 3.12354114104511 21.53103937037012
504 2 13.53428405100347 3.12354114101925 21.53103937044354