# LAMMPS data file written by OVITO Basic 3.2.1
640 atoms
2 atom types
0.0 25.0011014914 xlo xhi
0.0 12.4098025076 ylo yhi
0.0 23.0055441372 zlo zhi
-1.4428843e-09 -5.6207085272 -1.6927552e-09 xy xz yz

Atoms  # atomic

1 1 1.5427844185 1.5512253133 1.8181610762
2 1 14.0433351642 1.5512253133 1.8181610762
3 1 -1.2675698451 1.5512253125 13.3209331448
4 1 11.2329809006 1.5512253125 13.3209331448
5 1 1.5427844181 4.6536759402 1.8181610762
6 1 14.0433351638 4.6536759402 1.8181610762
7 1 -1.2675698455 4.6536759394 13.3209331448
8 1 11.2329809002 4.6536759394 13.3209331448
9 1 1.5427844178 7.7561265671 1.8181610762
10 1 14.0433351635 7.7561265671 1.8181610762
11 1 -1.2675698458 7.7561265663 13.3209331448
12 1 11.2329808999 7.7561265663 13.3209331448
13 1 1.5427844174 10.858577194 1.8181610762
14 1 14.0433351631 10.858577194 1.8181610762
15 1 -1.2675698462 10.8585771932 13.3209331448
16 1 11.2329808995 10.8585771932 13.3209331448
17 1 0.1376072867 1.5512253129 7.5695471105
18 1 12.6381580324 1.5512253129 7.5695471105
19 1 -2.6727469769 1.551225312 19.0723191791
20 1 9.8278037688 1.551225312 19.0723191791
21 1 0.1376072863 4.6536759398 7.5695471105
22 1 12.638158032 4.6536759398 7.5695471105
23 1 -2.6727469773 4.6536759389 19.0723191791
24 1 9.8278037684 4.6536759389 19.0723191791
25 1 0.137607286 7.7561265667 7.5695471105
26 1 12.6381580317 7.7561265667 7.5695471105
27 1 -2.6727469776 7.7561265658 19.0723191791
28 1 9.8278037681 7.7561265658 19.0723191791
29 1 0.1376072856 10.8585771936 7.5695471105
30 1 12.6381580313 10.8585771936 7.5695471105
31 1 -2.672746978 10.8585771927 19.0723191791
32 1 9.8278037677 10.8585771927 19.0723191791
33 1 3.3023138229 -1.7599847167e-10 3.9332249552
34 1 15.8028645686 -1.7599847167e-10 3.9332249552
35 1 0.4919595593 -1.0223760717e-09 15.4359970238
36 1 12.992510305 -1.0223760717e-09 15.4359970238
37 1 3.3023138225 3.1024506267 3.9332249552
38 1 15.8028645682 3.1024506267 3.9332249552
39 1 0.4919595589 3.1024506259 15.4359970238
40 1 12.9925103046 3.1024506259 15.4359970238
41 1 3.3023138222 6.2049012536 3.9332249552
42 1 15.8028645679 6.2049012536 3.9332249552
43 1 0.4919595586 6.2049012528 15.4359970238
44 1 12.9925103043 6.2049012528 15.4359970238
45 1 3.3023138218 9.3073518805 3.9332249552
46 1 15.8028645675 9.3073518805 3.9332249552
47 1 0.4919595582 9.3073518797 15.4359970238
48 1 12.9925103039 9.3073518797 15.4359970238
49 1 1.8971366911 -5.9918727167e-10 9.6846109895
50 1 14.3976874368 -5.9918727167e-10 9.6846109895
51 1 -0.9132175725 -1.4455648717e-09 21.1873830581
52 1 11.5873331732 -1.4455648717e-09 21.1873830581
53 1 1.8971366907 3.1024506263 9.6846109895
54 1 14.3976874364 3.1024506263 9.6846109895
55 1 -0.9132175729 3.1024506255 21.1873830581
56 1 11.5873331728 3.1024506255 21.1873830581
57 1 1.8971366904 6.2049012532 9.6846109895
58 1 14.3976874361 6.2049012532 9.6846109895
59 1 -0.9132175732 6.2049012524 21.1873830581
60 1 11.5873331725 6.2049012524 21.1873830581
61 1 1.89713669 9.3073518801 9.6846109895
62 1 14.3976874357 9.3073518801 9.6846109895
63 1 -0.9132175736 9.3073518793 21.1873830581
64 1 11.5873331721 9.3073518793 21.1873830581
65 1 0.016852548 3.1024506264 4.577980036
66 1 12.5174032937 3.1024506264 4.577980036
67 1 -2.7935017156 3.1024506256 16.0807521046
68 1 9.7070490301 3.1024506256 16.0807521046
69 1 0.0168525476 6.2049012533 4.577980036
70 1 12.5174032933 6.2049012533 4.577980036
71 1 -2.793501716 6.2049012525 16.0807521046
72 1 9.7070490297 6.2049012525 16.0807521046
73 1 0.0168525473 9.3073518802 4.577980036
74 1 12.517403293 9.3073518802 4.577980036
75 1 -2.7935017163 9.3073518794 16.0807521046
76 1 9.7070490294 9.3073518794 16.0807521046
77 1 0.0168525469 12.4098025071 4.577980036
78 1 12.5174032926 12.4098025071 4.577980036
79 1 -2.7935017167 12.4098025063 16.0807521046
80 1 9.707049029 12.4098025063 16.0807521046
81 1 -1.3883245838 3.102450626 10.3293660703
82 1 11.1122261619 3.102450626 10.3293660703
83 1 -4.1986788474 3.1024506251 21.8321381389
84 1 8.3018718983 3.1024506251 21.8321381389
85 1 -1.3883245842 6.2049012529 10.3293660703
86 1 11.1122261615 6.2049012529 10.3293660703
87 1 -4.1986788478 6.204901252 21.8321381389
88 1 8.3018718979 6.204901252 21.8321381389
89 1 -1.3883245845 9.3073518798 10.3293660703
90 1 11.1122261612 9.3073518798 10.3293660703
91 1 -4.1986788481 9.3073518789 21.8321381389
92 1 8.3018718976 9.3073518789 21.8321381389
93 1 -1.3883245849 12.4098025067 10.3293660703
94 1 11.1122261608 12.4098025067 10.3293660703
95 1 -4.1986788485 12.4098025058 21.8321381389
96 1 8.3018718972 12.4098025058 21.8321381389
97 1 4.8282456947 1.5512253136 1.1734059959
98 1 17.3287964404 1.5512253136 1.1734059959
99 1 2.0178914311 1.5512253128 12.6761780645
100 1 14.5184421768 1.5512253128 12.6761780645
101 1 4.8282456943 4.6536759405 1.1734059959
102 1 17.32879644 4.6536759405 1.1734059959
103 1 2.0178914307 4.6536759397 12.6761780645
104 1 14.5184421764 4.6536759397 12.6761780645
105 1 4.828245694 7.7561265674 1.1734059959
106 1 17.3287964397 7.7561265674 1.1734059959
107 1 2.0178914304 7.7561265666 12.6761780645
108 1 14.5184421761 7.7561265666 12.6761780645
109 1 4.8282456936 10.8585771943 1.1734059959
110 1 17.3287964393 10.8585771943 1.1734059959
111 1 2.01789143 10.8585771935 12.6761780645
112 1 14.5184421757 10.8585771935 12.6761780645
113 1 3.4230685629 1.5512253132 6.9247920302
114 1 15.9236193086 1.5512253132 6.9247920302
115 1 0.6127142993 1.5512253123 18.4275640988
116 1 13.113265045 1.5512253123 18.4275640988
117 1 3.4230685625 4.6536759401 6.9247920302
118 1 15.9236193082 4.6536759401 6.9247920302
119 1 0.6127142989 4.6536759392 18.4275640988
120 1 13.1132650446 4.6536759392 18.4275640988
121 1 3.4230685622 7.756126567 6.9247920302
122 1 15.9236193079 7.756126567 6.9247920302
123 1 0.6127142986 7.7561265661 18.4275640988
124 1 13.1132650443 7.7561265661 18.4275640988
125 1 3.4230685618 10.8585771939 6.9247920302
126 1 15.9236193075 10.8585771939 6.9247920302
127 1 0.6127142982 10.858577193 18.4275640988
128 1 13.1132650439 10.858577193 18.4275640988
129 1 7.793059792 5.903768116e-11 1.8181610808
130 1 20.2936105377 5.903768116e-11 1.8181610808
131 1 4.9827055284 -7.8733991884e-10 13.3209331494
132 1 17.4832562741 -7.8733991884e-10 13.3209331494
133 1 7.7930597916 3.102450627 1.8181610808
134 1 20.2936105373 3.102450627 1.8181610808
135 1 4.982705528 3.1024506261 13.3209331494
136 1 17.4832562737 3.1024506261 13.3209331494
137 1 7.7930597913 6.2049012539 1.8181610808
138 1 20.293610537 6.2049012539 1.8181610808
139 1 4.9827055277 6.204901253 13.3209331494
140 1 17.4832562734 6.204901253 13.3209331494
141 1 7.7930597909 9.3073518808 1.8181610808
142 1 20.2936105366 9.3073518808 1.8181610808
143 1 4.9827055273 9.3073518799 13.3209331494
144 1 17.483256273 9.3073518799 13.3209331494
145 1 6.3878826602 -3.6415111884e-10 7.5695471151
146 1 18.8884334059 -3.6415111884e-10 7.5695471151
147 1 3.5775283966 -1.2105287188e-09 19.0723191837
148 1 16.0780791423 -1.2105287188e-09 19.0723191837
149 1 6.3878826598 3.1024506265 7.5695471151
150 1 18.8884334055 3.1024506265 7.5695471151
151 1 3.5775283962 3.1024506257 19.0723191837
152 1 16.0780791419 3.1024506257 19.0723191837
153 1 6.3878826595 6.2049012534 7.5695471151
154 1 18.8884334052 6.2049012534 7.5695471151
155 1 3.5775283959 6.2049012526 19.0723191837
156 1 16.0780791416 6.2049012526 19.0723191837
157 1 6.3878826591 9.3073518803 7.5695471151
158 1 18.8884334048 9.3073518803 7.5695471151
159 1 3.5775283955 9.3073518795 19.0723191837
160 1 16.0780791412 9.3073518795 19.0723191837
161 1 9.5525891941 1.5512253129 3.9332249565
162 1 22.0531399398 1.5512253129 3.9332249565
163 1 6.7422349305 1.5512253121 15.4359970251
164 1 19.2427856762 1.5512253121 15.4359970251
165 1 9.5525891937 4.6536759398 3.9332249565
166 1 22.0531399394 4.6536759398 3.9332249565
167 1 6.7422349301 4.653675939 15.4359970251
168 1 19.2427856758 4.653675939 15.4359970251
169 1 9.5525891934 7.7561265667 3.9332249565
170 1 22.0531399391 7.7561265667 3.9332249565
171 1 6.7422349298 7.7561265659 15.4359970251
172 1 19.2427856755 7.7561265659 15.4359970251
173 1 9.552589193 10.8585771936 3.9332249565
174 1 22.0531399387 10.8585771936 3.9332249565
175 1 6.7422349294 10.8585771928 15.4359970251
176 1 19.2427856751 10.8585771928 15.4359970251
177 1 8.1474120623 1.5512253125 9.6846109908
178 1 20.647962808 1.5512253125 9.6846109908
179 1 5.3370577987 1.5512253116 21.1873830594
180 1 17.8376085444 1.5512253116 21.1873830594
181 1 8.1474120619 4.6536759394 9.6846109908
182 1 20.6479628076 4.6536759394 9.6846109908
183 1 5.3370577983 4.6536759385 21.1873830594
184 1 17.837608544 4.6536759385 21.1873830594
185 1 8.1474120616 7.7561265663 9.6846109908
186 1 20.6479628073 7.7561265663 9.6846109908
187 1 5.337057798 7.7561265654 21.1873830594
188 1 17.8376085437 7.7561265654 21.1873830594
189 1 8.1474120612 10.8585771932 9.6846109908
190 1 20.6479628069 10.8585771932 9.6846109908
191 1 5.3370577976 10.8585771923 21.1873830594
192 1 17.8376085433 10.8585771923 21.1873830594
193 1 6.2671279215 1.5512253133 4.5779800407
194 1 18.7676786672 1.5512253133 4.5779800407
195 1 3.4567736579 1.5512253125 16.0807521093
196 1 15.9573244036 1.5512253125 16.0807521093
197 1 6.2671279211 4.6536759402 4.5779800407
198 1 18.7676786668 4.6536759402 4.5779800407
199 1 3.4567736575 4.6536759394 16.0807521093
200 1 15.9573244032 4.6536759394 16.0807521093
201 1 6.2671279208 7.7561265671 4.5779800407
202 1 18.7676786665 7.7561265671 4.5779800407
203 1 3.4567736572 7.7561265663 16.0807521093
204 1 15.9573244029 7.7561265663 16.0807521093
205 1 6.2671279204 10.858577194 4.5779800407
206 1 18.7676786661 10.858577194 4.5779800407
207 1 3.4567736568 10.8585771932 16.0807521093
208 1 15.9573244025 10.8585771932 16.0807521093
209 1 4.8619507897 1.5512253129 10.329366075
210 1 17.3625015354 1.5512253129 10.329366075
211 1 2.0515965261 1.551225312 21.8321381436
212 1 14.5521472718 1.551225312 21.8321381436
213 1 4.8619507893 4.6536759398 10.329366075
214 1 17.362501535 4.6536759398 10.329366075
215 1 2.0515965257 4.6536759389 21.8321381436
216 1 14.5521472714 4.6536759389 21.8321381436
217 1 4.861950789 7.7561265667 10.329366075
218 1 17.3625015347 7.7561265667 10.329366075
219 1 2.0515965254 7.7561265658 21.8321381436
220 1 14.5521472711 7.7561265658 21.8321381436
221 1 4.8619507886 10.8585771936 10.329366075
222 1 17.3625015343 10.8585771936 10.329366075
223 1 2.051596525 10.8585771927 21.8321381436
224 1 14.5521472707 10.8585771927 21.8321381436
225 1 11.0785210623 3.1024506265 1.173405996
226 1 23.579071808 3.1024506265 1.173405996
227 1 8.2681667987 3.1024506257 12.6761780646
228 1 20.7687175444 3.1024506257 12.6761780646
229 1 11.0785210619 6.2049012534 1.173405996
230 1 23.5790718076 6.2049012534 1.173405996
231 1 8.2681667983 6.2049012526 12.6761780646
232 1 20.768717544 6.2049012526 12.6761780646
233 1 11.0785210616 9.3073518803 1.173405996
234 1 23.5790718073 9.3073518803 1.173405996
235 1 8.268166798 9.3073518795 12.6761780646
236 1 20.7687175437 9.3073518795 12.6761780646
237 1 11.0785210612 12.4098025072 1.173405996
238 1 23.5790718069 12.4098025072 1.173405996
239 1 8.2681667976 12.4098025064 12.6761780646
240 1 20.7687175433 12.4098025064 12.6761780646
241 1 9.6733439305 3.1024506261 6.9247920303
242 1 22.1738946762 3.1024506261 6.9247920303
243 1 6.8629896669 3.1024506252 18.4275640989
244 1 19.3635404126 3.1024506252 18.4275640989
245 1 9.6733439301 6.204901253 6.9247920303
246 1 22.1738946758 6.204901253 6.9247920303
247 1 6.8629896665 6.2049012521 18.4275640989
248 1 19.3635404122 6.2049012521 18.4275640989
249 1 9.6733439298 9.3073518799 6.9247920303
250 1 22.1738946755 9.3073518799 6.9247920303
251 1 6.8629896662 9.307351879 18.4275640989
252 1 19.3635404119 9.307351879 18.4275640989
253 1 9.6733439294 12.4098025068 6.9247920303
254 1 22.1738946751 12.4098025068 6.9247920303
255 1 6.8629896658 12.4098025059 18.4275640989
256 1 19.3635404115 12.4098025059 18.4275640989
257 2 5.8461096515 2.3198700946e-10 1.4745049139
258 2 18.3466603972 2.3198700946e-10 1.4745049139
259 2 3.0357553879 -6.1439059054e-10 12.9772769825
260 2 15.5363061336 -6.1439059054e-10 12.9772769825
261 2 5.8461096511 3.1024506271 1.4745049139
262 2 18.3466603968 3.1024506271 1.4745049139
263 2 3.0357553875 3.1024506263 12.9772769825
264 2 15.5363061332 3.1024506263 12.9772769825
265 2 5.8461096508 6.204901254 1.4745049139
266 2 18.3466603965 6.204901254 1.4745049139
267 2 3.0357553872 6.2049012532 12.9772769825
268 2 15.5363061329 6.2049012532 12.9772769825
269 2 5.8461096504 9.3073518809 1.4745049139
270 2 18.3466603961 9.3073518809 1.4745049139
271 2 3.0357553868 9.3073518801 12.9772769825
272 2 15.5363061325 9.3073518801 12.9772769825
273 2 4.4409325197 -1.9120179054e-10 7.2258909482
274 2 16.9414832654 -1.9120179054e-10 7.2258909482
275 2 1.6305782561 -1.0375793905e-09 18.7286630168
276 2 14.1311290018 -1.0375793905e-09 18.7286630168
277 2 4.4409325193 3.1024506267 7.2258909482
278 2 16.941483265 3.1024506267 7.2258909482
279 2 1.6305782557 3.1024506259 18.7286630168
280 2 14.1311290014 3.1024506259 18.7286630168
281 2 4.440932519 6.2049012536 7.2258909482
282 2 16.9414832647 6.2049012536 7.2258909482
283 2 1.6305782554 6.2049012528 18.7286630168
284 2 14.1311290011 6.2049012528 18.7286630168
285 2 4.4409325186 9.3073518805 7.2258909482
286 2 16.9414832643 9.3073518805 7.2258909482
287 2 1.630578255 9.3073518797 18.7286630168
288 2 14.1311290007 9.3073518797 18.7286630168
289 2 -1.0010114083 1.5512253129 4.2768811182
290 2 11.4995393374 1.5512253129 4.2768811182
291 2 -3.8113656719 1.5512253121 15.7796531868
292 2 8.6891850738 1.5512253121 15.7796531868
293 2 -1.0010114087 4.6536759398 4.2768811182
294 2 11.499539337 4.6536759398 4.2768811182
295 2 -3.8113656723 4.653675939 15.7796531868
296 2 8.6891850734 4.653675939 15.7796531868
297 2 -1.001011409 7.7561265667 4.2768811182
298 2 11.4995393367 7.7561265667 4.2768811182
299 2 -3.8113656726 7.7561265659 15.7796531868
300 2 8.6891850731 7.7561265659 15.7796531868
301 2 -1.0010114094 10.8585771936 4.2768811182
302 2 11.4995393363 10.8585771936 4.2768811182
303 2 -3.811365673 10.8585771928 15.7796531868
304 2 8.6891850727 10.8585771928 15.7796531868
305 2 -2.4061885401 1.5512253125 10.0282671525
306 2 10.0943622056 1.5512253125 10.0282671525
307 2 -5.2165428037 1.5512253116 21.5310392211
308 2 7.284007942 1.5512253116 21.5310392211
309 2 -2.4061885405 4.6536759394 10.0282671525
310 2 10.0943622052 4.6536759394 10.0282671525
311 2 -5.2165428041 4.6536759385 21.5310392211
312 2 7.2840079416 4.6536759385 21.5310392211
313 2 -2.4061885408 7.7561265663 10.0282671525
314 2 10.0943622049 7.7561265663 10.0282671525
315 2 -5.2165428044 7.7561265654 21.5310392211
316 2 7.2840079413 7.7561265654 21.5310392211
317 2 -2.4061885412 10.8585771932 10.0282671525
318 2 10.0943622045 10.8585771932 10.0282671525
319 2 -5.2165428048 10.8585771923 21.5310392211
320 2 7.2840079409 10.8585771923 21.5310392211
321 2 1.3814698591 3.1024506265 3.2314389435
322 2 13.8820206048 3.1024506265 3.2314389435
323 2 -1.4288844045 3.1024506257 14.7342110121
324 2 11.0716663412 3.1024506257 14.7342110121
325 2 1.3814698587 6.2049012534 3.2314389435
326 2 13.8820206044 6.2049012534 3.2314389435
327 2 -1.4288844049 6.2049012526 14.7342110121
328 2 11.0716663408 6.2049012526 14.7342110121
329 2 1.3814698584 9.3073518803 3.2314389435
330 2 13.8820206041 9.3073518803 3.2314389435
331 2 -1.4288844052 9.3073518795 14.7342110121
332 2 11.0716663405 9.3073518795 14.7342110121
333 2 1.381469858 12.4098025072 3.2314389435
334 2 13.8820206037 12.4098025072 3.2314389435
335 2 -1.4288844056 12.4098025064 14.7342110121
336 2 11.0716663401 12.4098025064 14.7342110121
337 2 -0.0237072727 3.1024506261 8.9828249778
338 2 12.476843473 3.1024506261 8.9828249778
339 2 -2.8340615363 3.1024506252 20.4855970464
340 2 9.6664892094 3.1024506252 20.4855970464
341 2 -0.0237072731 6.204901253 8.9828249778
342 2 12.4768434726 6.204901253 8.9828249778
343 2 -2.8340615367 6.2049012521 20.4855970464
344 2 9.666489209 6.2049012521 20.4855970464
345 2 -0.0237072734 9.3073518799 8.9828249778
346 2 12.4768434723 9.3073518799 8.9828249778
347 2 -2.834061537 9.307351879 20.4855970464
348 2 9.6664892087 9.307351879 20.4855970464
349 2 -0.0237072738 12.4098025068 8.9828249778
350 2 12.4768434719 12.4098025068 8.9828249778
351 2 -2.8340615374 12.4098025059 20.4855970464
352 2 9.6664892083 12.4098025059 20.4855970464
353 2 3.4636283831 1.5512253135 2.5199470877
354 2 15.9641791288 1.5512253135 2.5199470877
355 2 0.6532741195 1.5512253127 14.0227191563
356 2 13.1538248652 1.5512253127 14.0227191563
357 2 3.4636283827 4.6536759404 2.5199470877
358 2 15.9641791284 4.6536759404 2.5199470877
359 2 0.6532741191 4.6536759396 14.0227191563
360 2 13.1538248648 4.6536759396 14.0227191563
361 2 3.4636283824 7.7561265673 2.5199470877
362 2 15.9641791281 7.7561265673 2.5199470877
363 2 0.6532741188 7.7561265665 14.0227191563
364 2 13.1538248645 7.7561265665 14.0227191563
365 2 3.463628382 10.8585771942 2.5199470877
366 2 15.9641791277 10.8585771942 2.5199470877
367 2 0.6532741184 10.8585771934 14.0227191563
368 2 13.1538248641 10.8585771934 14.0227191563
369 2 2.0584512513 1.5512253131 8.271333122
370 2 14.559001997 1.5512253131 8.271333122
371 2 -0.7519030123 1.5512253122 19.7741051906
372 2 11.7486477334 1.5512253122 19.7741051906
373 2 2.0584512509 4.65367594 8.271333122
374 2 14.5590019966 4.65367594 8.271333122
375 2 -0.7519030127 4.6536759391 19.7741051906
376 2 11.748647733 4.6536759391 19.7741051906
377 2 2.0584512506 7.7561265669 8.271333122
378 2 14.5590019963 7.7561265669 8.271333122
379 2 -0.751903013 7.756126566 19.7741051906
380 2 11.7486477327 7.756126566 19.7741051906
381 2 2.0584512502 10.8585771938 8.271333122
382 2 14.5590019959 10.8585771938 8.271333122
383 2 -0.7519030134 10.8585771929 19.7741051906
384 2 11.7486477323 10.8585771929 19.7741051906
385 2 2.9306238502 1.5512253132 5.1112994996
386 2 15.4311745959 1.5512253132 5.1112994996
387 2 0.1202695866 1.5512253124 16.6140715682
388 2 12.6208203323 1.5512253124 16.6140715682
389 2 2.9306238498 4.6536759401 5.1112994996
390 2 15.4311745955 4.6536759401 5.1112994996
391 2 0.1202695862 4.6536759393 16.6140715682
392 2 12.6208203319 4.6536759393 16.6140715682
393 2 2.9306238495 7.756126567 5.1112994996
394 2 15.4311745952 7.756126567 5.1112994996
395 2 0.1202695859 7.7561265662 16.6140715682
396 2 12.6208203316 7.7561265662 16.6140715682
397 2 2.9306238491 10.8585771939 5.1112994996
398 2 15.4311745948 10.8585771939 5.1112994996
399 2 0.1202695855 10.8585771931 16.6140715682
400 2 12.6208203312 10.8585771931 16.6140715682
401 2 1.5254467184 1.5512253128 10.8626855339
402 2 14.0259974641 1.5512253128 10.8626855339
403 2 -1.2849075452 1.5512253119 22.3654576025
404 2 11.2156432005 1.5512253119 22.3654576025
405 2 1.525446718 4.6536759397 10.8626855339
406 2 14.0259974637 4.6536759397 10.8626855339
407 2 -1.2849075456 4.6536759388 22.3654576025
408 2 11.2156432001 4.6536759388 22.3654576025
409 2 1.5254467177 7.7561265666 10.8626855339
410 2 14.0259974634 7.7561265666 10.8626855339
411 2 -1.2849075459 7.7561265657 22.3654576025
412 2 11.2156431998 7.7561265657 22.3654576025
413 2 1.5254467173 10.8585771935 10.8626855339
414 2 14.025997463 10.8585771935 10.8626855339
415 2 -1.2849075463 10.8585771926 22.3654576025
416 2 11.2156431994 10.8585771926 22.3654576025
417 2 1.9144743912 3.1024506268 0.6400865325
418 2 14.4150251369 3.1024506268 0.6400865325
419 2 -0.8958798724 3.102450626 12.1428586011
420 2 11.6046708733 3.102450626 12.1428586011
421 2 1.9144743908 6.2049012537 0.6400865325
422 2 14.4150251365 6.2049012537 0.6400865325
423 2 -0.8958798728 6.2049012529 12.1428586011
424 2 11.6046708729 6.2049012529 12.1428586011
425 2 1.9144743905 9.3073518806 0.6400865325
426 2 14.4150251362 9.3073518806 0.6400865325
427 2 -0.8958798731 9.3073518798 12.1428586011
428 2 11.6046708726 9.3073518798 12.1428586011
429 2 1.9144743901 12.4098025075 0.6400865325
430 2 14.4150251358 12.4098025075 0.6400865325
431 2 -0.8958798735 12.4098025067 12.1428586011
432 2 11.6046708722 12.4098025067 12.1428586011
433 2 0.5092972594 3.1024506264 6.3914725668
434 2 13.0098480051 3.1024506264 6.3914725668
435 2 -2.3010570042 3.1024506255 17.8942446354
436 2 10.1994937415 3.1024506255 17.8942446354
437 2 0.509297259 6.2049012533 6.3914725668
438 2 13.0098480047 6.2049012533 6.3914725668
439 2 -2.3010570046 6.2049012524 17.8942446354
440 2 10.1994937411 6.2049012524 17.8942446354
441 2 0.5092972587 9.3073518802 6.3914725668
442 2 13.0098480044 9.3073518802 6.3914725668
443 2 -2.3010570049 9.3073518793 17.8942446354
444 2 10.1994937408 9.3073518793 17.8942446354
445 2 0.5092972583 12.4098025071 6.3914725668
446 2 13.009848004 12.4098025071 6.3914725668
447 2 -2.3010570053 12.4098025062 17.8942446354
448 2 10.1994937404 12.4098025062 17.8942446354
449 2 12.0963850263 1.5512253132 1.4745049153
450 2 24.596935772 1.5512253132 1.4745049153
451 2 9.2860307627 1.5512253124 12.9772769839
452 2 21.7865815084 1.5512253124 12.9772769839
453 2 12.0963850259 4.6536759401 1.4745049153
454 2 24.5969357716 4.6536759401 1.4745049153
455 2 9.2860307623 4.6536759393 12.9772769839
456 2 21.786581508 4.6536759393 12.9772769839
457 2 12.0963850256 7.756126567 1.4745049153
458 2 24.5969357713 7.756126567 1.4745049153
459 2 9.286030762 7.7561265662 12.9772769839
460 2 21.7865815077 7.7561265662 12.9772769839
461 2 12.0963850252 10.8585771939 1.4745049153
462 2 24.5969357709 10.8585771939 1.4745049153
463 2 9.2860307616 10.8585771931 12.9772769839
464 2 21.7865815073 10.8585771931 12.9772769839
465 2 10.6912078945 1.5512253128 7.2258909496
466 2 23.1917586402 1.5512253128 7.2258909496
467 2 7.8808536309 1.5512253119 18.7286630182
468 2 20.3814043766 1.5512253119 18.7286630182
469 2 10.6912078941 4.6536759397 7.2258909496
470 2 23.1917586398 4.6536759397 7.2258909496
471 2 7.8808536305 4.6536759388 18.7286630182
472 2 20.3814043762 4.6536759388 18.7286630182
473 2 10.6912078938 7.7561265666 7.2258909496
474 2 23.1917586395 7.7561265666 7.2258909496
475 2 7.8808536302 7.7561265657 18.7286630182
476 2 20.3814043759 7.7561265657 18.7286630182
477 2 10.6912078934 10.8585771935 7.2258909496
478 2 23.1917586391 10.8585771935 7.2258909496
479 2 7.8808536298 10.8585771926 18.7286630182
480 2 20.3814043755 10.8585771926 18.7286630182
481 2 5.2492639583 -2.4223839007e-10 4.2768811208
482 2 17.749814704 -2.4223839007e-10 4.2768811208
483 2 2.4389096947 -1.0886159901e-09 15.7796531894
484 2 14.9394604404 -1.0886159901e-09 15.7796531894
485 2 5.2492639579 3.1024506267 4.2768811208
486 2 17.7498147036 3.1024506267 4.2768811208
487 2 2.4389096943 3.1024506258 15.7796531894
488 2 14.93946044 3.1024506258 15.7796531894
489 2 5.2492639576 6.2049012536 4.2768811208
490 2 17.7498147033 6.2049012536 4.2768811208
491 2 2.438909694 6.2049012527 15.7796531894
492 2 14.9394604397 6.2049012527 15.7796531894
493 2 5.2492639572 9.3073518805 4.2768811208
494 2 17.7498147029 9.3073518805 4.2768811208
495 2 2.4389096936 9.3073518796 15.7796531894
496 2 14.9394604393 9.3073518796 15.7796531894
497 2 3.8440868265 -6.6542719007e-10 10.0282671551
498 2 16.3446375722 -6.6542719007e-10 10.0282671551
499 2 1.0337325629 -1.5118047901e-09 21.5310392237
500 2 13.5342833086 -1.5118047901e-09 21.5310392237
501 2 3.8440868261 3.1024506262 10.0282671551
502 2 16.3446375718 3.1024506262 10.0282671551
503 2 1.0337325625 3.1024506254 21.5310392237
504 2 13.5342833082 3.1024506254 21.5310392237
505 2 3.8440868258 6.2049012531 10.0282671551
506 2 16.3446375715 6.2049012531 10.0282671551
507 2 1.0337325622 6.2049012523 21.5310392237
508 2 13.5342833079 6.2049012523 21.5310392237
509 2 3.8440868254 9.30735188 10.0282671551
510 2 16.3446375711 9.30735188 10.0282671551
511 2 1.0337325618 9.3073518792 21.5310392237
512 2 13.5342833075 9.3073518792 21.5310392237
513 2 7.6317452288 1.5512253132 3.2314389475
514 2 20.1322959745 1.5512253132 3.2314389475
515 2 4.8213909652 1.5512253124 14.7342110161
516 2 17.3219417109 1.5512253124 14.7342110161
517 2 7.6317452284 4.6536759401 3.2314389475
518 2 20.1322959741 4.6536759401 3.2314389475
519 2 4.8213909648 4.6536759393 14.7342110161
520 2 17.3219417105 4.6536759393 14.7342110161
521 2 7.6317452281 7.756126567 3.2314389475
522 2 20.1322959738 7.756126567 3.2314389475
523 2 4.8213909645 7.7561265662 14.7342110161
524 2 17.3219417102 7.7561265662 14.7342110161
525 2 7.6317452277 10.8585771939 3.2314389475
526 2 20.1322959734 10.8585771939 3.2314389475
527 2 4.8213909641 10.8585771931 14.7342110161
528 2 17.3219417098 10.8585771931 14.7342110161
529 2 6.226568097 1.5512253128 8.9828249818
530 2 18.7271188427 1.5512253128 8.9828249818
531 2 3.4162138334 1.5512253119 20.4855970504
532 2 15.9167645791 1.5512253119 20.4855970504
533 2 6.2265680966 4.6536759397 8.9828249818
534 2 18.7271188423 4.6536759397 8.9828249818
535 2 3.416213833 4.6536759388 20.4855970504
536 2 15.9167645787 4.6536759388 20.4855970504
537 2 6.2265680963 7.7561265666 8.9828249818
538 2 18.727118842 7.7561265666 8.9828249818
539 2 3.4162138327 7.7561265657 20.4855970504
540 2 15.9167645784 7.7561265657 20.4855970504
541 2 6.2265680959 10.8585771935 8.9828249818
542 2 18.7271188416 10.8585771935 8.9828249818
543 2 3.4162138323 10.8585771926 20.4855970504
544 2 15.916764578 10.8585771926 20.4855970504
545 2 9.7139037556 3.1024506266 2.5199470898
546 2 22.2144545013 3.1024506266 2.5199470898
547 2 6.903549492 3.1024506258 14.0227191584
548 2 19.4041002377 3.1024506258 14.0227191584
549 2 9.7139037552 6.2049012535 2.5199470898
550 2 22.2144545009 6.2049012535 2.5199470898
551 2 6.9035494916 6.2049012527 14.0227191584
552 2 19.4041002373 6.2049012527 14.0227191584
553 2 9.7139037549 9.3073518804 2.5199470898
554 2 22.2144545006 9.3073518804 2.5199470898
555 2 6.9035494913 9.3073518796 14.0227191584
556 2 19.404100237 9.3073518796 14.0227191584
557 2 9.7139037545 12.4098025073 2.5199470898
558 2 22.2144545002 12.4098025073 2.5199470898
559 2 6.9035494909 12.4098025065 14.0227191584
560 2 19.4041002366 12.4098025065 14.0227191584
561 2 8.3087266238 3.1024506262 8.2713331241
562 2 20.8092773695 3.1024506262 8.2713331241
563 2 5.4983723602 3.1024506253 19.7741051927
564 2 17.9989231059 3.1024506253 19.7741051927
565 2 8.3087266234 6.2049012531 8.2713331241
566 2 20.8092773691 6.2049012531 8.2713331241
567 2 5.4983723598 6.2049012522 19.7741051927
568 2 17.9989231055 6.2049012522 19.7741051927
569 2 8.3087266231 9.30735188 8.2713331241
570 2 20.8092773688 9.30735188 8.2713331241
571 2 5.4983723595 9.3073518791 19.7741051927
572 2 17.9989231052 9.3073518791 19.7741051927
573 2 8.3087266227 12.4098025069 8.2713331241
574 2 20.8092773684 12.4098025069 8.2713331241
575 2 5.4983723591 12.409802506 19.7741051927
576 2 17.9989231048 12.409802506 19.7741051927
577 2 9.1808992224 3.1024506262 5.1112995021
578 2 21.6814499681 3.1024506262 5.1112995021
579 2 6.3705449588 3.1024506254 16.6140715707
580 2 18.8710957045 3.1024506254 16.6140715707
581 2 9.180899222 6.2049012531 5.1112995021
582 2 21.6814499677 6.2049012531 5.1112995021
583 2 6.3705449584 6.2049012523 16.6140715707
584 2 18.8710957041 6.2049012523 16.6140715707
585 2 9.1808992217 9.30735188 5.1112995021
586 2 21.6814499674 9.30735188 5.1112995021
587 2 6.3705449581 9.3073518792 16.6140715707
588 2 18.8710957038 9.3073518792 16.6140715707
589 2 9.1808992213 12.4098025069 5.1112995021
590 2 21.681449967 12.4098025069 5.1112995021
591 2 6.3705449577 12.4098025061 16.6140715707
592 2 18.8710957034 12.4098025061 16.6140715707
593 2 7.7757220906 3.1024506258 10.8626855364
594 2 20.2762728363 3.1024506258 10.8626855364
595 2 4.965367827 3.1024506249 22.365457605
596 2 17.4659185727 3.1024506249 22.365457605
597 2 7.7757220902 6.2049012527 10.8626855364
598 2 20.2762728359 6.2049012527 10.8626855364
599 2 4.9653678266 6.2049012518 22.365457605
600 2 17.4659185723 6.2049012518 22.365457605
601 2 7.7757220899 9.3073518796 10.8626855364
602 2 20.2762728356 9.3073518796 10.8626855364
603 2 4.9653678263 9.3073518787 22.365457605
604 2 17.465918572 9.3073518787 22.365457605
605 2 7.7757220895 12.4098025065 10.8626855364
606 2 20.2762728352 12.4098025065 10.8626855364
607 2 4.9653678259 12.4098025056 22.365457605
608 2 17.4659185716 12.4098025056 22.365457605
609 2 8.1647497628 1.5512253136 0.6400865342
610 2 20.6653005085 1.5512253136 0.6400865342
611 2 5.3543954992 1.5512253128 12.1428586028
612 2 17.8549462449 1.5512253128 12.1428586028
613 2 8.1647497624 4.6536759405 0.6400865342
614 2 20.6653005081 4.6536759405 0.6400865342
615 2 5.3543954988 4.6536759397 12.1428586028
616 2 17.8549462445 4.6536759397 12.1428586028
617 2 8.1647497621 7.7561265674 0.6400865342
618 2 20.6653005078 7.7561265674 0.6400865342
619 2 5.3543954985 7.7561265666 12.1428586028
620 2 17.8549462442 7.7561265666 12.1428586028
621 2 8.1647497617 10.8585771943 0.6400865342
622 2 20.6653005074 10.8585771943 0.6400865342
623 2 5.3543954981 10.8585771935 12.1428586028
624 2 17.8549462438 10.8585771935 12.1428586028
625 2 6.759572631 1.5512253132 6.3914725685
626 2 19.2601233767 1.5512253132 6.3914725685
627 2 3.9492183674 1.5512253123 17.8942446371
628 2 16.4497691131 1.5512253123 17.8942446371
629 2 6.7595726306 4.6536759401 6.3914725685
630 2 19.2601233763 4.6536759401 6.3914725685
631 2 3.949218367 4.6536759392 17.8942446371